# vtk DataFile Version 3.0
vtk output
ASCII
DATASET STRUCTURED_POINTS
DIMENSIONS 26 47 67
SPACING 1.11101 1.06503 1.04298
ORIGIN 40.8378 87.2207 270.298
CELL_DATA 75900
POINT_DATA 81874
SCALARS scalars float
LOOKUP_TABLE default
0 0 0 0 0 0 0 0 0 
0 0 0 0 0 0 0 0 0 
0 0 0 0 0 0 0 0 0 
0 0 0 0 0 0 0 0 0 
0 0 0 0 0 0 0 0 0 
0 0 0 0 0 0 0 0 0 
0 0 0 0 0 0 0 0 0 
0 0 0 0 0 0 0 0 0 
0 0 0 0 0 0 0 0 0 
0 0 0 0 0 0 0 0 0 
0 0 0 0 0 0 0 0 0 
0 0 0 0 0 0 0 0 0 
0 0 0 0 0 0 0 0 0 
0 0 0 0 0 0 0 0 0 
0 0 0 0 0 0 0 0 0 
0 0 0 0 0 0 0 0 0 
0 0 0 0 0 0 0 0 0 
0 0 0 0 0 0 0 0 0 
0 0 0 0 0 0 0 0 0 
0 0 0 0 0 0 0 0 0 
0 0 0 0 0 0 0 0 0 
0 0 0 0 0 0 0 0 0 
0 0 0 0 0 0 0 0 0 
0 0 0 0 0 0 0 0 0 
0 0 0 0 0 0 0 0 0 
0 0 0 0 0 0 0 0 0 
0 0 0 0 0 0 0 0 0 
0 0 0 0 0 0 0 0 0 
0 0 0 0 0 0 0 0 0 
0 0 0 0 0 0 0 0 0 
0 0 0 0 0 0 0 0 0 
0 0 0 0 0 0 0 0 0 
0 0 0 0 0 0 0 0 0 
0 0 0 0 0 0 0 0 0 
0 0 0 0 0 0 0 0 0 
0 0 0 0 0 0 0 0 0 
0 0 0 0 0 0 0 0 0 
0 0 0 0 0 0 0 0 0 
0 0 0 0 0 0 0 0 0 
0 0 0 0 0 0 0 0 0 
0 0 0 0 0 0 0 0 0 
0 0 0 0 0 0 0 0 0 
0 0 0 0 0 0 0 0 0 
0 0 0 0 0 0 0 0 0 
0 0 0 0 0 0 0 0 0 
0 0 0 0 0 0 0 0 0 
0 0 0 0 0 0 0 0 0 
0 0 0 0 0 0 0 0 0 
0 0 0 0 0 0 0 0 0 
0 0 0 0 0 0 0 0 0 
0 0 0 0 0 0 0 0 0 
0 0 0 0 0 0 0 0 0 
0 0 0 0 0 0 0 0 0 
0 0 0 0 0 0 0 0 0 
0 0 0 0 0 0 0 0 0 
0 0 0 0 0 0 0 0 0 
0 0 0 0 0 0 0 0 0 
0 0 0 0 0 0 0 0 0 
0 0 0 0 0 0 0 0 0 
0 0 0 0 0 0 0 0 0 
0 0 0 0 0 0 0 0 0 
0 0 0 0 0 0 0 0 0 
0 0 0 0 0 0 0 0 0 
0 0 0 0 0 0 0 0 0 
0 0 0 0 0 0 0 0 0 
0 0 0 0 0 0 0 0 0 
0 0 0 0 0 0 0 0 0 
0 0 0 0 0 0 0 0 0 
0 0 0 0 0 0 0 0 0 
0 0 0 0 0 0 0 0 0 
0 0 0 0 0 0 0 0 0 
0 0 0 0 0 0 0 0 0 
0 0 0 0 0 0 0 0 0 
0 0 0 0 0 0 0 0 0 
0 0 0 0 0 0 0 0 0 
0 0 0 0 0 0 0 0 0 
0 0 0 0 0 0 0 0 0 
0 0 0 0 0 0 0 0 0 
0 0 0 0 0 0 0 0 0 
0 0 0 0 0 0 0 0 0 
0 0 0 0 0 0 0 0 0 
0 0 0 0 0 0 0 0 0 
0 0 0 0 0 0 0 0 0 
0 0 0 0 0 0 0 0 0 
0 0 0 0 0 0 0 0 0 
0 0 0 0 0 0 0 0 0 
0 0 0 0 0 0 0 0 0 
0 0 0 0 0 0 0 0 0 
0 0 0 0 0 0 0 0 0 
0 0 0 0 0 0 0 0 0 
0 0 0 0 0 0 0 0 0 
0 0 0 0 0 0 0 0 0 
0 0 0 0 0 0 0 0 0 
0 0 0 0 0 0 0 0 0 
0 0 0 0 0 0 0 0 0 
0 0 0 0 0 0 0 0 0 
0 0 0 0 0 0 0 0 0 
0 0 0 0 0 0 0 0 0 
0 0 0 0 0 0 0 0 0 
0 0 0 0 0 0 0 0 0 
0 0 0 0 0 0 0 0 0 
0 0 0 0 0 0 0 0 0 
0 0 0 0 0 0 0 0 0 
0 0 0 0 0 0 0 0 0 
0 0 0 0 0 0 0 0 0 
0 0 0 0 0 0 0 0 0 
0 0 0 0 0 0 0 0 0 
0 0 0 0 0 0 0 0 0 
0 0 0 0 0 0 0 0 0 
0 0 0 0 0 0 0 0 0 
0 0 0 0 0 0 0 0 0 
0 0 0 0 0 0 0 0 0 
0 0 0 0 0 0 0 0 0 
0 0 0 0 0 0 0 0 0 
0 0 0 0 0 0 0 0 0 
0 0 0 0 0 0 0 0 0 
0 0 0 0 0 0 0 0 0 
0 0 0 0 0 0 0 0 0 
0 0 0 0 0 0 0 0 0 
0 0 0 0 0 0 0 0 0 
0 0 0 0 0 0 0 0 0 
0 0 0 0 0 0 0 0 0 
0 0 0 0 0 0 0 0 0 
0 0 0 0 0 0 0 0 0 
0 0 0 0 0 0 0 0 0 
0 0 0 0 0 0 0 0 0 
0 0 0 0 0 0 0 0 0 
0 0 0 0 0 0 0 0 0 
0 0 0 0 0 0 0 0 0 
0 0 0 0 0 0 0 0 0 
0 0 0 0 0 0 0 0 0 
0 0 0 0 0 0 0 0 0 
0 0 0 0 0 0 0 0 0 
0 0 0 0 0 0 0 0 0 
0 0 0 0 0 0 0 0 0 
0 0 0 0 0 0 0 0 0 
0 0 0 0 0 0 0 0 0 
0 0 0 0 0 0 0 0 0 
0 0 0 0 0 0 0 0 0 
0 0 0 0 0 0 0 0 0 
0 0 0 0 0 0 0 0 0 
0 0 0 0 0 0 0 0 0 
0 0 0 0 0 0 0 0 0 
0 0 0 0 0 0 0 0 0 
0 0 0 0 0 0 0 0 0 
0 0 0 0 0 0 0 0 0 
0 0 0 0 0 0 0 0 0 
0 0 0 0 0 0 0 0 0 
0 0 0 0 0 0 0 0 0 
0 0 0 0 0 0 0 0 0 
0 0 0 0 0 0 0 0 0 
0 0 0 0 0 0 0 0 0 
0 0 0 0 0 0 0 0 0 
0 0 0 0 0 0 0 0 0 
0 0 0 0 0 0 0 0 0 
0 0 0 0 0 0 0 0 0 
0 0 0 0 0 0 0 0 0 
0 0 0 0 0 0 0 0 0 
0 0 0 0 0 0 0 0 0 
0 0 0 0 0 0 0 0 0 
0 0 0 0 0 0 0 0 0 
0 0 0 0 0 0 0 0 0 
0 0 0 0 0 0 0 0 0 
0 0 0 0 0 0 0 0 0 
0 0 0 0 0 0 0 0 0 
0 0 0 0 0 0 0 0 0 
0 0 0 0 0 0 0 0 0 
0 0 0 0 0 0 0 0 0 
0 0 0 0 0 0 0 0 0 
0 0 0 0 0 0 0 0 0 
0 0 0 0 0 0 0 0 0 
0 0 0 0 0 0 0 0 0 
0 0 0 0 0 0 0 0 0 
0 0 0 0 0 0 0 0 0 
0 0 0 0 0 0 0 0 0 
0 0 0 0 0 0 0 0 0 
0 0 0 0 0 0 0 0 0 
0 0 0 0 0 0 0 0 0 
0 0 0 0 0 0 0 0 0 
0 0 0 0 0 0 0 0 0 
0 0 0 0 0 0 0 0 0 
0 0 0 0 0 0 0 0 0 
0 0 0 0 0 0 0 0 0 
0 0 0 0 0 0 0 0 0 
0 0 0 0 0 0 0 0 0 
0 0 0 0 0 0 0 0 0 
0 0 0 0 0 0 0 0 0 
0 0 0 0 0 0 0 0 0 
0 0 0 0 0 0 0 0 0 
0 0 0 0 0 0 0 0 0 
0 0 0 0 0 0 0 0 0 
0 0 0 0 0 0 0 0 0 
0 0 0 0 0 0 0 0 0 
0 0 0 0 0 0 0 0 0 
0 0 0 0 0 0 0 0 0 
0 0 0 0 0 0 0 0 0 
0 0 0 0 0 0 0 0 0 
0 0 0 0 0 0 0 0 0 
0 0 0 0 0 0 0 0 0 
0 0 0 0 0 0 0 0 0 
0 0 0 0 0 0 0 0 0 
0 0 0 0 0 0 0 0 0 
0 0 0 0 0 0 0 0 0 
0 0 0 0 0 0 0 0 0 
0 0 0 0 0 0 0 0 0 
0 0 0 0 0 0 0 0 0 
0 0 0 0 0 0 0 0 0 
0 0.000928462 0.00115423 0 0 0 0 0 0 
0 0 0 0 0 0 0 0 0 
0 0 0 0 0 0 0 0.00738802 0.0145848 
0.0158272 0.016198 0.0129032 0.00573824 0 0 0 0 0 
0 0 0 0 0 0 0 0 0 
0 0 0 0 0.00757569 0.0181714 0.0301877 0.0429888 0.0467702 
0.0454646 0.0363867 0.0233627 0.00818241 0 0 0 0 0 
0 0 0 0 0 0 0 0 0 
0 0 0.00948089 0.0279778 0.0483651 0.0646086 0.0750882 0.0801254 0.0759092 
0.0654275 0.0474612 0.0248862 0.00667765 0 0 0 0 0 
0 0 0 0 0 0 0 0 0 
0.00749247 0.0274176 0.0532319 0.0787234 0.0991804 0.111616 0.116044 0.110921 0.0954388 
0.0725959 0.0447373 0.0170719 0 0 0 0 0 0 
0 0 0 0 0 0 0 0 0.0153113 
0.0462562 0.0776971 0.108051 0.130409 0.143693 0.146749 0.140599 0.122514 0.0960695 
0.0637342 0.0317371 0.0079336 0 0 0 0 0 0 
0 0 0 0 0 0 0 0.0225166 0.0624445 
0.0990596 0.132137 0.155708 0.167737 0.168956 0.162267 0.143893 0.114885 0.0790578 
0.0447479 0.0146651 0 0 0 0 0 0 0 
0 0 0 0 0 0.00905818 0.0373251 0.0775182 0.117138 
0.150622 0.172906 0.183572 0.183882 0.176532 0.158986 0.12924 0.090204 0.0528236 
0.0181818 0 0 0 0 0 0 0 0 
0 0 0 0 0.0189452 0.0535347 0.0912079 0.130735 0.16272 
0.183771 0.193555 0.194095 0.186176 0.167595 0.137684 0.0971981 0.0577446 0.0198456 
0.0018357 0 0 0 0 0 0 0 0 
0 0 0.00453989 0.0255001 0.0613736 0.0991633 0.138663 0.168965 0.18875 
0.197632 0.197948 0.190033 0.171096 0.141166 0.100524 0.0599225 0.0212627 0.0018428 
0 0 0 0 0 0 0 0 0 
0 0.00769373 0.0262225 0.062292 0.100775 0.13974 0.168302 0.187262 0.196033 
0.19556 0.187543 0.168954 0.139281 0.0992554 0.0593011 0.0208755 0.00263354 0 
0 0 0 0 0 0 0 0 0 
0 0.0219384 0.0560035 0.0951739 0.132518 0.160838 0.17929 0.187842 0.187378 
0.179587 0.162032 0.13334 0.0941794 0.0555892 0.0187561 0 0 0 
0 0 0 0 0 0 0 0 0 
0.0156588 0.0481322 0.0832475 0.118638 0.14738 0.166024 0.174147 0.174236 0.166118 
0.148692 0.121392 0.0853902 0.049844 0.0168093 0 0 0 0 
0 0 0 0 0 0 0 0 0.0103402 
0.0349895 0.0672791 0.0993165 0.126533 0.144715 0.153105 0.152811 0.144698 0.128208 
0.102836 0.0717803 0.0413299 0.013389 0 0 0 0 0 
0 0 0 0 0 0 0 0 0.0211379 
0.0472492 0.0751682 0.0993023 0.115649 0.124227 0.122814 0.114543 0.0997354 0.0780846 
0.0516603 0.027545 0.00857143 0 0 0 0 0 0 
0 0 0 0 0 0 0 0.00706264 0.0261777 
0.049109 0.0679077 0.0807657 0.0869456 0.0855757 0.0788769 0.0663741 0.0481528 0.0288774 
0.0135196 0 0 0 0 0 0 0 0 
0 0 0 0 0 0 0 0.00854013 0.024865 
0.0392336 0.0477933 0.0509046 0.0501002 0.0449064 0.0342659 0.0200196 0.00892893 0 
0 0 0 0 0 0 0 0 0 
0 0 0 0 0 0 0 0.00678534 0.0136957 
0.0164389 0.0176519 0.0171253 0.0140348 0.0100487 0 0 0 0 
0 0 0 0 0 0 0 0 0 
0 0 0 0 0 0 0 0 0.0010349 
0.00114856 0 0 0 0 0 0 0 0 
0 0 0 0 0 0 0 0 0 
0 0 0 0 0 0 0 0 0 
0 0 0 0 0 0 0 0 0 
0 0 0 0 0 0 0 0 0 
0 0 0 0 0 0 0 0 0 
0 0 0 0 0 0 0 0 0 
0 0 0 0 0 0 0 0 0 
0 0 0 0 0 0 0 0 0 
0 0 0 0 0 0 0 0 0 
0 0 0 0 0 0 0 0 0 
0 0 0 0 0 0 0 0 0 
0 0 0 0 0 0 0 0 0 
0 0 0 0 0 0 0 0 0 
0 0 0 0 0 0 0 0 0 
0 0 0 0 0 0 0 0 0 
0 0 0 0 0 0 0 0 0 
0 0 0 0 0 0 0 0 0 
0 0 0 0 0 0 0 0 0 
0 0 0 0 0 0 0 0 0 
0 0 0 0 0 0 0 0 0 
0 0 0 0 0 0 0 0 0 
0 0 0 0 0 0 0 0 0 
0 0 0 0 0 0 0 0 0 
0 0 0 0 0 0 0 0 0 
0 0 0 0 0 0 0 0 0 
0 0 0 0 0 0 0 0 0 
0 0 0 0 0 0 0 0 0 
0 0 0 0 0 0 0 0 0 
0 0 0 0 0 0 0 0 0 
0 0 0 0 0 0 0 0 0 
0 0 0 0 0 0 0 0 0 
0 0 0 0 0 0 0 0 0 
0 0 0 0 0 0 0 0 0 
0 0 0 0 0 0 0 0 0 
0 0 0 0 0 0 0 0 0 
0 0 0 0 0 0 0 0 0 
0 0 0 0 0 0 0 0 0 
0 0 0 0 0 0 0 0 0 
0 0 0 0 0 0 0 0 0 
0 0 0 0 0 0 0 0 0 
0 0 0 0 0 0 0 0 0 
0 0 0 0 0 0 0 0 0 
0 0 0 0 0 0 0 0 0 
0 0 0 0 0 0 0 0 0 
0 0 0 0 0 0 0 0 0 
0 0 0 0 0 0 0 0 0 
0 0 0 0 0 0 0 0 0 
0 0 0 0 0 0 0 0 0 
0 0 0 0 0 0 0 0 0 
0 0 0 0 0 0 0 0 0 
0 0 0 0 0 0 0 0 0 
0 0 0 0 0 0 0 0 0 
0 0 0 0 0 0 0 0 0 
0 0 0 0 0 0 0 0 0 
0 0 0 0 0 0 0 0 0 
0 0 0 0 0 0 0 0 0 
0 0 0 0 0 0 0 0 0 
0 0 0 0 0 0 0 0 0 
0 0 0 0 0 0 0 0 0 
0 0 0 0 0 0 0 0 0 
0 0 0 0 0 0 0 0 0 
0 0 0 0 0 0 0 0 0 
0 0 0 0 0 0 0 0 0 
0 0 0 0 0 0 0 0 0 
0 0 0 0 0 0 0 0 0 
0 0 0 0 0 0 0 0 0 
0 0 0 0 0 0 0 0 0 
0 0 0 0 0 0 0 0 0 
0 0 0 0 0 0 0 0 0 
0 0 0 0 0 0 0 0 0 
0 0 0 0 0 0 0 0 0 
0 0 0 0 0 0 0 0 0 
0 0 0 0 0 0 0 0 0 
0 0 0 0 0 0 0 0 0 
0 0 0 0 0 0 0 0 0 
0 0 0 0 0 0 0 0 0 
0 0 0 0 0 0 0 0 0 
0 0 0 0 0 0 0 0 0 
0 0 0 0 0 0 0 0 0 
0 0 0 0 0 0 0 0 0 
0 0 0 0 0 0 0 0 0 
0 0 0 0 0 0 0 0 0 
0 0 0 0 0 0 0 0 0.000808122 
0.000523723 0 0 0 0 0 0 0 0 
0 0 0 0 0 0 0 0 0 
0 0 0 0 0 0.00934491 0.0189831 0.0201924 0.0201471 
0.0153002 0.00776723 0 0 0 0 0 0 0 
0 0 0 0 0 0 0 0 0 
0 0 0.00894719 0.0216378 0.0346354 0.0469588 0.0511594 0.0479126 0.0385185 
0.0239932 0.0100506 0 0 0 0 0 0 0 
0 0 0 0 0 0 0 0 0 
0.0113632 0.030535 0.0511994 0.0670461 0.0773259 0.0793188 0.0755025 0.0657167 0.0506229 
0.0277003 0.00761266 0 0 0 0 0 0 0 
0 0 0 0 0 0 0 0.00998088 0.0308954 
0.0570726 0.0787017 0.0965731 0.106413 0.108881 0.104395 0.08979 0.0716938 0.0471226 
0.0221885 0 0 0 0 0 0 0 0 
0 0 0 0 0 0 0.0192034 0.0506086 0.0796585 
0.102938 0.123852 0.136123 0.140153 0.13245 0.115591 0.092989 0.0666682 0.0370247 
0.0112755 0 0 0 0 0 0 0 0 
0 0 0 0 0 0.0275893 0.0659825 0.0999003 0.126216 
0.149035 0.159444 0.162604 0.154465 0.136102 0.108683 0.0810813 0.0503265 0.0195806 
0 0 0 0 0 0 0 0 0 
0 0 0 0.0111755 0.0424653 0.0813482 0.114805 0.143631 0.166406 
0.176997 0.177251 0.169506 0.15194 0.121875 0.0911502 0.0577931 0.0241697 0 
0 0 0 0 0 0 0 0 0 
0 0 0.0230444 0.0577663 0.092788 0.125602 0.156559 0.176478 0.186632 
0.187008 0.179159 0.159745 0.129936 0.0973015 0.0628198 0.0255374 0 0 
0 0 0 0 0 0 0 0 0 
0.0063137 0.0291697 0.0656562 0.0985996 0.132948 0.161925 0.181789 0.190701 0.190861 
0.183241 0.163592 0.133437 0.100633 0.0642186 0.0273835 0 0 0 
0 0 0 0 0 0 0 0 0.00750902 
0.0304922 0.0654994 0.0978139 0.132323 0.160912 0.180387 0.188843 0.188459 0.180267 
0.16155 0.131946 0.0995744 0.0633422 0.0271447 0 0 0 0 
0 0 0 0 0 0 0 0.00486755 0.0277057 
0.0603752 0.0938665 0.126515 0.154596 0.172404 0.18087 0.18128 0.172659 0.15488 
0.125465 0.0939121 0.0596041 0.0246992 0 0 0 0 0 
0 0 0 0 0 0 0 0.0217533 0.0530681 
0.0841956 0.11236 0.140435 0.159051 0.167094 0.166486 0.158445 0.140737 0.113412 
0.0847777 0.0530449 0.0218118 0 0 0 0 0 0 
0 0 0 0 0 0 0.0136976 0.0392395 0.0694048 
0.0952237 0.119702 0.137341 0.145375 0.144978 0.137141 0.120062 0.0954276 0.0711151 
0.0444438 0.0174453 0 0 0 0 0 0 0 
0 0 0 0 0 0.0051225 0.0249405 0.0508583 0.0742373 
0.0940021 0.108894 0.11599 0.115649 0.106845 0.0933197 0.0744186 0.0540248 0.0311994 
0.0122339 0 0 0 0 0 0 0 0 
0 0 0 0 0 0.00918704 0.0291494 0.0515018 0.0688855 
0.0807932 0.0856656 0.0840463 0.0788404 0.0666796 0.0507543 0.0330217 0.0174629 0.00443364 
0 0 0 0 0 0 0 0 0 
0 0 0 0 0 0.0102794 0.0272242 0.0429322 0.0513472 
0.0542651 0.0529518 0.0491015 0.0365734 0.0247182 0.0126589 0.00438923 0 0 
0 0 0 0 0 0 0 0 0 
0 0 0 0 0 0.00889595 0.0175766 0.0212927 0.0219978 
0.0214047 0.0190007 0.0130311 0.00457999 0 0 0 0 0 
0 0 0 0 0 0 0 0 0 
0 0 0 0 0 0 0.000766652 0.000704504 0 
0 0 0 0 0 0 0 0 0 
0 0 0 0 0 0 0 0 0 
0 0 0 0 0 0 0 0 0 
0 0 0 0 0 0 0 0 0 
0 0 0 0 0 0 0 0 0 
0 0 0 0 0 0 0 0 0 
0 0 0 0 0 0 0 0 0 
0 0 0 0 0 0 0 0 0 
0 0 0 0 0 0 0 0 0 
0 0 0 0 0 0 0 0 0 
0 0 0 0 0 0 0 0 0 
0 0 0 0 0 0 0 0 0 
0 0 0 0 0 0 0 0 0 
0 0 0 0 0 0 0 0 0 
0 0 0 0 0 0 0 0 0 
0 0 0 0 0 0 0 0 0 
0 0 0 0 0 0 0 0 0 
0 0 0 0 0 0 0 0 0 
0 0 0 0 0 0 0 0 0 
0 0 0 0 0 0 0 0 0 
0 0 0 0 0 0 0 0 0 
0 0 0 0 0 0 0 0 0 
0 0 0 0 0 0 0 0 0 
0 0 0 0 0 0 0 0 0 
0 0 0 0 0 0 0 0 0 
0 0 0 0 0 0 0 0 0 
0 0 0 0 0 0 0 0 0 
0 0 0 0 0 0 0 0 0 
0 0 0 0 0 0 0 0 0 
0 0 0 0 0 0 0 0 0 
0 0 0 0 0 0 0 0 0 
0 0 0 0 0 0 0 0 0 
0 0 0 0 0 0 0 0 0 
0 0 0 0 0 0 0 0 0 
0 0 0 0 0 0 0 0 0 
0 0 0 0 0 0 0 0 0 
0 0 0 0 0 0 0 0 0 
0 0 0 0 0 0 0 0 0 
0 0 0 0 0 0 0 0 0 
0 0 0 0 0 0 0 0 0 
0 0 0 0 0 0 0 0 0 
0 0 0 0 0 0 0 0 0 
0 0 0 0 0 0 0 0 0 
0 0 0 0 0 0 0 0 0 
0 0 0 0 0 0 0 0 0 
0 0 0 0 0 0 0 0 0 
0 0 0 0 0 0 0 0 0 
0 0 0 0 0 0 0 0 0 
0 0 0 0 0 0 0 0 0 
0 0 0 0 0 0 0 0 0 
0 0 0 0 0 0 0 0 0 
0 0 0 0 0 0 0 0 0 
0 0 0 0 0 0 0 0 0 
0 0 0 0 0 0 0 0 0 
0 0 0 0 0 0 0 0 0 
0 0 0 0 0 0 0 0 0 
0 0 0 0 0 0 0 0 0 
0 0 0 0 0 0 0 0 0 
0 0 0 0 0 0 0 0 0 
0 0 0 0 0 0 0 0 0 
0 0 0 0 0 0 0 0 0 
0 0 0 0 0 0 0 0 0 
0 0 0 0 0 0 0 0 0 
0 0 0 0 0 0 0 0 0 
0 0 0 0 0 0 0 0 0 
0 0 0 0 0 0 0 0 0 
0 0 0 0 0 0 0 0 0 
0 0 0 0 0 0 0 0 0 
0 0 0 0 0 0 0 0 0 
0 0 0 0 0 0 0 0 0 
0 0 0 0 0 0 0 0 0 
0 0 0 0 0 0 0 0 0 
0 0 0 0 0 0 0 0 0 
0 0 0 0 0 0 0 0 0 
0 0 0 0 0 0 0 0 0 
0 0 0 0 0 0 0 0 0 
0 0 0 0 0 0 0 0 0 
0 0 0 0 0 0 0 0 0 
0 0 0 0 0 0 0 0 0 
0 0 0 0 0 0 0 0 0 
0 0 0 0 0 0 0 0 0 
0 0 0 0 0 0 0 0 0 
0 0 0 0 0 0 0 0 0 
0 0 0 0 0 0 0 0 0 
0 0 0 0 0 0 0 0 0 
0 0 0 0 0 0 0 0 0 
0 0 0 0.00754632 0.0179534 0.0187557 0.0178652 0.0123249 0.00322642 
0 0 0 0 0 0 0 0 0 
0 0 0 0 0 0 0 0 0 
0.00852023 0.0203358 0.0360627 0.0497723 0.053868 0.0500317 0.0400897 0.0240242 0.00816083 
0 0 0 0 0 0 0 0 0 
0 0 0 0 0 0 0 0.010174 0.0335083 
0.0550575 0.070043 0.0799282 0.0838099 0.0797178 0.0681454 0.0523873 0.0285266 0.00764776 
0 0 0 0 0 0 0 0 0 
0 0 0 0 0 0.00883333 0.034065 0.0617575 0.0815005 
0.0982569 0.107995 0.108691 0.104046 0.0911002 0.072688 0.0517746 0.0225178 0.00303665 
0 0 0 0 0 0 0 0 0 
0 0 0 0 0.0193231 0.0538743 0.0839642 0.105786 0.123256 
0.133396 0.136813 0.129296 0.114677 0.0939547 0.0694561 0.0392416 0.0106507 0 
0 0 0 0 0 0 0 0 0 
0 0 0 0.0260622 0.0705485 0.103483 0.12611 0.146901 0.155234 
0.157221 0.149262 0.133945 0.109418 0.083592 0.0540186 0.0184128 0 0 
0 0 0 0 0 0 0 0 0 
0 0.00973846 0.0448667 0.0856687 0.117911 0.142816 0.162535 0.171528 0.171424 
0.16374 0.147658 0.121219 0.0943082 0.0617102 0.0213965 0 0 0 
0 0 0 0 0 0 0 0 0 
0.0203868 0.0619894 0.0979189 0.127868 0.153871 0.171718 0.181291 0.18131 0.173427 
0.155418 0.128875 0.101849 0.0657573 0.0226738 0 0 0 0 
0 0 0 0 0 0 0 0.00353178 0.026658 
0.0687139 0.104976 0.132597 0.159125 0.176222 0.18534 0.185398 0.176824 0.159068 
0.1314 0.10356 0.0685907 0.023693 0 0 0 0 0 
0 0 0 0 0 0 0.00613534 0.0297672 0.068669 
0.103711 0.131967 0.15804 0.174599 0.183261 0.183554 0.173948 0.156882 0.130256 
0.102067 0.0671057 0.0230069 0 0 0 0 0 0 
0 0 0 0 0 0.00536169 0.0253065 0.0661797 0.0978385 
0.125438 0.150315 0.167104 0.175252 0.174982 0.166078 0.15018 0.123765 0.0969397 
0.0633523 0.0215042 0 0 0 0 0 0 0 
0 0 0 0 0.00164825 0.0212052 0.0560682 0.0872064 0.11368 
0.137719 0.154082 0.161214 0.160044 0.152967 0.136946 0.111765 0.0879573 0.0568747 
0.0189938 0 0 0 0 0 0 0 0 
0 0 0 0 0.0121148 0.0410695 0.0720331 0.0980797 0.119425 
0.134678 0.14105 0.140685 0.133235 0.117808 0.0958709 0.074032 0.0471413 0.0162366 
0 0 0 0 0 0 0 0 0 
0 0 0 0.00486353 0.0232118 0.0556846 0.0762303 0.09594 0.108107 
0.114375 0.113422 0.105887 0.0934087 0.0753942 0.0563711 0.0360372 0.0112058 0 
0 0 0 0 0 0 0 0 0 
0 0 0 0.00809495 0.0316823 0.055323 0.0718225 0.0840344 0.0889503 
0.0864219 0.0803501 0.0679827 0.0539132 0.0373079 0.018099 0.00590427 0 0 
0 0 0 0 0 0 0 0 0 
0 0 0 0.0090358 0.02963 0.0464554 0.0547146 0.0565871 0.0555458 
0.0491846 0.0379017 0.0231887 0.0129758 0.00688186 0 0 0 0 
0 0 0 0 0 0 0 0 0 
0 0 0 0.00709032 0.0157884 0.0193538 0.01981 0.0190926 0.0178359 
0.00937491 0.0059626 0 0 0 0 0 0 0 
0 0 0 0 0 0 0 0 0 
0 0 0 0 0 0 0 0 0 
0 0 0 0 0 0 0 0 0 
0 0 0 0 0 0 0 0 0 
0 0 0 0 0 0 0 0 0 
0 0 0 0 0 0 0 0 0 
0 0 0 0 0 0 0 0 0 
0 0 0 0 0 0 0 0 0 
0 0 0 0 0 0 0 0 0 
0 0 0 0 0 0 0 0 0 
0 0 0 0 0 0 0 0 0 
0 0 0 0 0 0 0 0 0 
0 0 0 0 0 0 0 0 0 
0 0 0 0 0 0 0 0 0 
0 0 0 0 0 0 0 0 0 
0 0 0 0 0 0 0 0 0 
0 0 0 0 0 0 0 0 0 
0 0 0 0 0 0 0 0 0 
0 0 0 0 0 0 0 0 0 
0 0 0 0 0 0 0 0 0 
0 0 0 0 0 0 0 0 0 
0 0 0 0 0 0 0 0 0 
0 0 0 0 0 0 0 0 0 
0 0 0 0 0 0 0 0 0 
0 0 0 0 0 0 0 0 0 
0 0 0 0 0 0 0 0 0 
0 0 0 0 0 0 0 0 0 
0 0 0 0 0 0 0 0 0 
0 0 0 0 0 0 0 0 0 
0 0 0 0 0 0 0 0 0 
0 0 0 0 0 0 0 0 0 
0 0 0 0 0 0 0 0 0 
0 0 0 0 0 0 0 0 0 
0 0 0 0 0 0 0 0 0 
0 0 0 0 0 0 0 0 0 
0 0 0 0 0 0 0 0 0 
0 0 0 0 0 0 0 0 0 
0 0 0 0 0 0 0 0 0 
0 0 0 0 0 0 0 0 0 
0 0 0 0 0 0 0 0 0 
0 0 0 0 0 0 0 0 0 
0 0 0 0 0 0 0 0 0 
0 0 0 0 0 0 0 0 0 
0 0 0 0 0 0 0 0 0 
0 0 0 0 0 0 0 0 0 
0 0 0 0 0 0 0 0 0 
0 0 0 0 0 0 0 0 0 
0 0 0 0 0 0 0 0 0 
0 0 0 0 0 0 0 0 0 
0 0 0 0 0 0 0 0 0 
0 0 0 0 0 0 0 0 0 
0 0 0 0 0 0 0 0 0 
0 0 0 0 0 0 0 0 0 
0 0 0 0 0 0 0 0 0 
0 0 0 0 0 0 0 0 0 
0 0 0 0 0 0 0 0 0 
0 0 0 0 0 0 0 0 0 
0 0 0 0 0 0 0 0 0 
0 0 0 0 0 0 0 0 0 
0 0 0 0 0 0 0 0 0 
0 0 0 0 0 0 0 0 0 
0 0 0 0 0 0 0 0 0 
0 0 0 0 0 0 0 0 0 
0 0 0 0 0 0 0 0 0 
0 0 0 0 0 0 0 0 0 
0 0 0 0 0 0 0 0 0 
0 0 0 0 0 0 0 0 0 
0 0 0 0 0 0 0 0 0 
0 0 0 0 0 0 0 0 0 
0 0 0 0 0 0 0 0 0 
0 0 0 0 0 0 0 0 0 
0 0 0 0 0 0 0 0 0 
0 0 0 0 0 0 0 0 0 
0 0 0 0 0 0 0 0 0 
0 0 0 0 0 0 0 0 0 
0 0 0 0 0 0 0 0 0 
0 0 0 0 0 0 0 0 0 
0 0 0 0 0 0 0 0 0 
0 0 0 0 0 0 0 0 0 
0 0 0 0 0 0 0 0 0 
0 0 0 0 0 0 0 0 0 
0 0 0 0 0 0 0 0 0 
0 0 0 0 0 0 0 0 0 
0 0 0 0 0 0 0 0 0 
0 0 0 0 0 0 0 0 0 
0 0 0 0 0 0 0 0 0 
0 0 0 0 0 0 0 0 0 
0 0 0 0 0 0 0 0 0 
0 0.008461 0.0177768 0.0186583 0.0168031 0.0102533 0 0 0 
0 0 0 0 0 0 0 0 0 
0 0 0 0 0 0 0 0.00960612 0.0219077 
0.0354697 0.0505892 0.0541308 0.0502185 0.0383684 0.0224571 0.00849567 0 0 
0 0 0 0 0 0 0 0 0 
0 0 0 0 0 0.0118268 0.0362082 0.0574304 0.0711437 
0.0805773 0.0837752 0.079498 0.0674399 0.0513206 0.0300854 0.00903797 0 0 
0 0 0 0 0 0 0 0 0 
0 0 0 0.00884811 0.0369134 0.0642545 0.0838282 0.0988624 0.109413 
0.110485 0.105419 0.0934958 0.074758 0.0541893 0.0236751 0.00597027 0 0 
0 0 0 0 0 0 0 0 0 
0 0 0.0208633 0.0576419 0.0865777 0.108134 0.124788 0.133411 0.136232 
0.128313 0.114542 0.093634 0.0699874 0.0381901 0.0115638 0 0 0 
0 0 0 0 0 0 0 0 0 
0 0.0319757 0.0749145 0.105862 0.127736 0.145179 0.152755 0.154196 0.145914 
0.132947 0.110774 0.0836825 0.0534935 0.0193146 0 0 0 0 
0 0 0 0 0 0 0 0 0.0132522 
0.0496013 0.0902186 0.120344 0.143126 0.159583 0.168432 0.168813 0.160306 0.145283 
0.122308 0.0943169 0.0619518 0.0202395 0 0 0 0 0 
0 0 0 0 0 0 0 0.0222705 0.0644966 
0.102203 0.131024 0.153245 0.168513 0.177553 0.177372 0.168516 0.152943 0.130531 
0.10219 0.0656144 0.0224073 0 0 0 0 0 0 
0 0 0 0 0 0 0.0256464 0.0692175 0.106922 
0.134677 0.158571 0.172605 0.181403 0.180986 0.171576 0.156131 0.133043 0.103443 
0.0686933 0.0228646 0 0 0 0 0 0 0 
0 0 0 0 0.00561165 0.0271587 0.0713638 0.106853 0.1347 
0.157024 0.170584 0.178862 0.178671 0.169267 0.153952 0.13133 0.102062 0.0670881 
0.021848 0 0 0 0 0 0 0 0 
0 0 0 0.00164825 0.0261702 0.0672281 0.0997232 0.127927 0.149185 
0.16344 0.1715 0.171112 0.161833 0.146406 0.124471 0.0966903 0.0635513 0.0216205 
0 0 0 0 0 0 0 0 0 
0 0 0 0.0198166 0.0587946 0.0891581 0.116205 0.136898 0.150029 
0.157308 0.156596 0.148344 0.134067 0.113393 0.0882372 0.0571458 0.0187686 0 
0 0 0 0 0 0 0 0 0 
0 0 0.0119345 0.0406134 0.0741726 0.100144 0.119508 0.133093 0.139583 
0.139113 0.130293 0.117259 0.0970437 0.0746499 0.0480101 0.0163469 0 0 
0 0 0 0 0 0 0 0 0 
0 0 0.0240392 0.0563533 0.0794849 0.0981451 0.109895 0.115129 0.114549 
0.105951 0.0937334 0.0775023 0.0596599 0.0369258 0.0128102 0 0 0 
0 0 0 0 0 0 0 0 0 
0 0.00880148 0.0341844 0.0576291 0.0731204 0.0842851 0.0880679 0.0861242 0.0790198 
0.0689749 0.0547571 0.0395186 0.0218468 0.00459565 0 0 0 0 
0 0 0 0 0 0 0 0 0 
0 0.0105155 0.0309849 0.0467938 0.0546747 0.0574157 0.0552857 0.047609 0.0347769 
0.0233168 0.0146375 0.0048068 0 0 0 0 0 0 
0 0 0 0 0 0 0 0 0 
0 0.00720091 0.0161196 0.018001 0.0194423 0.0196628 0.0148703 0.0109679 0.00202515 
0 0 0 0 0 0 0 0 0 
0 0 0 0 0 0 0 0 0 
0 0 0 0 0 0 0 0 0 
0 0 0 0 0 0 0 0 0 
0 0 0 0 0 0 0 0 0 
0 0 0 0 0 0 0 0 0 
0 0 0 0 0 0 0 0 0 
0 0 0 0 0 0 0 0 0 
0 0 0 0 0 0 0 0 0 
0 0 0 0 0 0 0 0 0 
0 0 0 0 0 0 0 0 0 
0 0 0 0 0 0 0 0 0 
0 0 0 0 0 0 0 0 0 
0 0 0 0 0 0 0 0 0 
0 0 0 0 0 0 0 0 0 
0 0 0 0 0 0 0 0 0 
0 0 0 0 0 0 0 0 0 
0 0 0 0 0 0 0 0 0 
0 0 0 0 0 0 0 0 0 
0 0 0 0 0 0 0 0 0 
0 0 0 0 0 0 0 0 0 
0 0 0 0 0 0 0 0 0 
0 0 0 0 0 0 0 0 0 
0 0 0 0 0 0 0 0 0 
0 0 0 0 0 0 0 0 0 
0 0 0 0 0 0 0 0 0 
0 0 0 0 0 0 0 0 0 
0 0 0 0 0 0 0 0 0 
0 0 0 0 0 0 0 0 0 
0 0 0 0 0 0 0 0 0 
0 0 0 0 0 0 0 0 0 
0 0 0 0 0 0 0 0 0 
0 0 0 0 0 0 0 0 0 
0 0 0 0 0 0 0 0 0 
0 0 0 0 0 0 0 0 0 
0 0 0 0 0 0 0 0 0 
0 0 0 0 0 0 0 0 0 
0 0 0 0 0 0 0 0 0 
0 0 0 0 0 0 0 0 0 
0 0 0 0 0 0 0 0 0 
0 0 0 0 0 0 0 0 0 
0 0 0 0 0 0 0 0 0 
0 0 0 0 0 0 0 0 0 
0 0 0 0 0 0 0 0 0 
0 0 0 0 0 0 0 0 0 
0 0 0 0 0 0 0 0 0 
0 0 0 0 0 0 0 0 0 
0 0 0 0 0 0 0 0 0 
0 0 0 0 0 0 0 0 0 
0 0 0 0 0 0 0 0 0 
0 0 0 0 0 0 0 0 0 
0 0 0 0 0 0 0 0 0 
0 0 0 0 0 0 0 0 0 
0 0 0 0 0 0 0 0 0 
0 0 0 0 0 0 0 0 0 
0 0 0 0 0 0 0 0 0 
0 0 0 0 0 0 0 0 0 
0 0 0 0 0 0 0 0 0 
0 0 0 0 0 0 0 0 0 
0 0 0 0 0 0 0 0 0 
0 0 0 0 0 0 0 0 0 
0 0 0 0 0 0 0 0 0 
0 0 0 0 0 0 0 0 0 
0 0 0 0 0 0 0 0 0 
0 0 0 0 0 0 0 0 0 
0 0 0 0 0 0 0 0 0 
0 0 0 0 0 0 0 0 0 
0 0 0 0 0 0 0 0 0 
0 0 0 0 0 0 0 0 0 
0 0 0 0 0 0 0 0 0 
0 0 0 0 0 0 0 0 0 
0 0 0 0 0 0 0 0 0 
0 0 0 0 0 0 0 0 0 
0 0 0 0 0 0 0 0 0 
0 0 0 0 0 0 0 0 0 
0 0 0 0 0 0 0 0 0 
0 0 0 0 0 0 0 0 0 
0 0 0 0 0 0 0 0 0 
0 0 0 0 0 0 0 0 0 
0 0 0 0 0 0 0 0 0 
0 0 0 0 0 0 0 0 0 
0 0 0 0 0 0 0 0 0 
0 0 0 0 0 0 0 0 0 
0 0 0 0 0 0 0 0 0 
0 0 0 0 0 0 0 0 0 
0 0 0 0 0 0 0 0 0 
0 0 0 0 0 0 0 0 0 
0 0 0 0 0 0 0 0 0 
0 0 0 0 0 0 0 0 0.00916141 
0.0178904 0.0192272 0.0179501 0.00893258 0 0 0 0 0 
0 0 0 0 0 0 0 0 0 
0 0 0 0 0 0.00916355 0.0224364 0.0366178 0.0511196 
0.054904 0.0503607 0.0367584 0.020016 0.00743297 0 0 0 0 
0 0 0 0 0 0 0 0 0 
0 0 0 0.0122978 0.0358739 0.0582595 0.0718386 0.0806558 0.08296 
0.0788571 0.067301 0.0514932 0.0291688 0.00754459 0 0 0 0 
0 0 0 0 0 0 0 0 0 
0 0.0103193 0.0385345 0.0651822 0.0862046 0.100916 0.109316 0.111086 0.106627 
0.0942615 0.0754726 0.0523037 0.0236328 0.00323653 0 0 0 0 
0 0 0 0 0 0 0 0 0 
0.0245345 0.0610663 0.0888297 0.110454 0.12557 0.133165 0.135567 0.128089 0.114719 
0.0943013 0.0709023 0.0392541 0.0114958 0 0 0 0 0 
0 0 0 0 0 0 0 0.00839358 0.0383357 
0.0795535 0.107738 0.129956 0.144536 0.152414 0.153062 0.145691 0.13234 0.110445 
0.0833433 0.0522377 0.019442 0 0 0 0 0 0 
0 0 0 0 0 0 0.0187432 0.0560847 0.0944748 
0.121522 0.143955 0.158884 0.166798 0.166561 0.159051 0.144658 0.121904 0.0932734 
0.0620661 0.0222091 0 0 0 0 0 0 0 
0 0 0 0 0 0.0279844 0.0698671 0.104546 0.131209 
0.154217 0.167903 0.174755 0.174898 0.166831 0.151956 0.129761 0.100011 0.0660845 
0.0232113 0 0 0 0 0 0 0 0 
0 0 0 0 0.0290371 0.0731226 0.108521 0.135404 0.157859 
0.170912 0.178387 0.177609 0.169567 0.154581 0.132038 0.102302 0.0677777 0.024231 
0 0 0 0 0 0 0 0 0 
0 0 0 0.0286593 0.0718352 0.107557 0.134366 0.155905 0.169144 
0.175963 0.17484 0.167029 0.152501 0.130429 0.100703 0.0660698 0.0235553 0 
0 0 0 0 0 0 0 0 0 
0 0 0.0249274 0.0676706 0.102291 0.128831 0.14947 0.162134 0.168592 
0.167961 0.159708 0.144609 0.123905 0.0952135 0.0625236 0.0225181 0 0 
0 0 0 0 0 0 0 0 0 
0 0.0197718 0.0597999 0.0909619 0.11727 0.136681 0.14963 0.15568 0.154472 
0.146888 0.13317 0.113512 0.0867675 0.0564684 0.0197718 0 0 0 
0 0 0 0 0 0 0 0 0 
0.0101746 0.0420672 0.0753924 0.101329 0.11952 0.132495 0.138058 0.137192 0.128832 
0.116503 0.0977523 0.074546 0.048813 0.0164611 0 0 0 0 
0 0 0 0 0 0 0 0 0 
0.0230931 0.0560561 0.0816666 0.0985637 0.110263 0.114842 0.114813 0.106022 0.0946697 
0.0790181 0.0594608 0.0366973 0.0129163 0 0 0 0 0 
0 0 0 0 0 0 0 0 0.00914643 
0.0336165 0.0583158 0.0736331 0.0833558 0.0871902 0.0857924 0.0780903 0.0679882 0.0529864 
0.0390063 0.0210348 0.00594396 0 0 0 0 0 0 
0 0 0 0 0 0 0 0 0.0105174 
0.0309826 0.0469888 0.0542042 0.0576708 0.0548034 0.0456746 0.0321809 0.0206386 0.0137333 
0.00607652 0 0 0 0 0 0 0 0 
0 0 0 0 0 0 0 0 0.00742857 
0.0172632 0.0193643 0.0203666 0.0195552 0.0125829 0.00671179 0 0 0 
0 0 0 0 0 0 0 0 0 
0 0 0 0 0 0 0 0 0 
0 0 0 0 0 0 0 0 0 
0 0 0 0 0 0 0 0 0 
0 0 0 0 0 0 0 0 0 
0 0 0 0 0 0 0 0 0 
0 0 0 0 0 0 0 0 0 
0 0 0 0 0 0 0 0 0 
0 0 0 0 0 0 0 0 0 
0 0 0 0 0 0 0 0 0 
0 0 0 0 0 0 0 0 0 
0 0 0 0 0 0 0 0 0 
0 0 0 0 0 0 0 0 0 
0 0 0 0 0 0 0 0 0 
0 0 0 0 0 0 0 0 0 
0 0 0 0 0 0 0 0 0 
0 0 0 0 0 0 0 0 0 
0 0 0 0 0 0 0 0 0 
0 0 0 0 0 0 0 0 0 
0 0 0 0 0 0 0 0 0 
0 0 0 0 0 0 0 0 0 
0 0 0 0 0 0 0 0 0 
0 0 0 0 0 0 0 0 0 
0 0 0 0 0 0 0 0 0 
0 0 0 0 0 0 0 0 0 
0 0 0 0 0 0 0 0 0 
0 0 0 0 0 0 0 0 0 
0 0 0 0 0 0 0 0 0 
0 0 0 0 0 0 0 0 0 
0 0 0 0 0 0 0 0 0 
0 0 0 0 0 0 0 0 0 
0 0 0 0 0 0 0 0 0 
0 0 0 0 0 0 0 0 0 
0 0 0 0 0 0 0 0 0 
0 0 0 0 0 0 0 0 0 
0 0 0 0 0 0 0 0 0 
0 0 0 0 0 0 0 0 0 
0 0 0 0 0 0 0 0 0 
0 0 0 0 0 0 0 0 0 
0 0 0 0 0 0 0 0 0 
0 0 0 0 0 0 0 0 0 
0 0 0 0 0 0 0 0 0 
0 0 0 0 0 0 0 0 0 
0 0 0 0 0 0 0 0 0 
0 0 0 0 0 0 0 0 0 
0 0 0 0 0 0 0 0 0 
0 0 0 0 0 0 0 0 0 
0 0 0 0 0 0 0 0 0 
0 0 0 0 0 0 0 0 0 
0 0 0 0 0 0 0 0 0 
0 0 0 0 0 0 0 0 0 
0 0 0 0 0 0 0 0 0 
0 0 0 0 0 0 0 0 0 
0 0 0 0 0 0 0 0 0 
0 0 0 0 0 0 0 0 0 
0 0 0 0 0 0 0 0 0 
0 0 0 0 0 0 0 0 0 
0 0 0 0 0 0 0 0 0 
0 0 0 0 0 0 0 0 0 
0 0 0 0 0 0 0 0 0 
0 0 0 0 0 0 0 0 0 
0 0 0 0 0 0 0 0 0 
0 0 0 0 0 0 0 0 0 
0 0 0 0 0 0 0 0 0 
0 0 0 0 0 0 0 0 0 
0 0 0 0 0 0 0 0 0 
0 0 0 0 0 0 0 0 0 
0 0 0 0 0 0 0 0 0 
0 0 0 0 0 0 0 0 0 
0 0 0 0 0 0 0 0 0 
0 0 0 0 0 0 0 0 0 
0 0 0 0 0 0 0 0 0 
0 0 0 0 0 0 0 0 0 
0 0 0 0 0 0 0 0 0 
0 0 0 0 0 0 0 0 0 
0 0 0 0 0 0 0 0 0 
0 0 0 0 0 0 0 0 0 
0 0 0 0 0 0 0 0 0 
0 0 0 0 0 0 0 0 0 
0 0 0 0 0 0 0 0 0 
0 0 0 0 0 0 0 0 0 
0 0 0 0 0 0 0 0 0 
0 0 0 0 0 0 0 0 0 
0 0 0 0 0 0 0 0 0 
0 0 0 0 0 0 0 0 0 
0 0 0 0 0 0 0 0 0 
0 0 0 0 0 0 0 0 0 
0 0 0 0 0 0 0 0 0 
0 0 0 0 0 0 0.00948709 0.01831 0.018778 
0.0182929 0.00869173 0 0 0 0 0 0 0 
0 0 0 0 0 0 0 0 0 
0 0 0 0.00980529 0.0222317 0.0381444 0.0514075 0.0539821 0.0495159 
0.0356837 0.0195846 0.0073508 0 0 0 0 0 0 
0 0 0 0 0 0 0 0 0 
0 0.0142843 0.0374093 0.0595092 0.0728441 0.0807182 0.084116 0.0794092 0.0675839 
0.0528914 0.0268987 0.00884737 0 0 0 0 0 0 
0 0 0 0 0 0 0 0 0.013003 
0.0408442 0.066631 0.0876702 0.102387 0.109465 0.111936 0.106512 0.0932541 0.0744215 
0.0503673 0.0204709 0 0 0 0 0 0 0 
0 0 0 0 0 0 0.00448198 0.0296461 0.0641365 
0.0904444 0.112105 0.125922 0.133197 0.134605 0.128145 0.115575 0.094985 0.0702301 
0.0373744 0.0111239 0 0 0 0 0 0 0 
0 0 0 0 0 0.0167236 0.0451 0.0824403 0.108822 
0.130476 0.144591 0.152418 0.152334 0.145985 0.132002 0.111063 0.0827865 0.0515256 
0.016549 0 0 0 0 0 0 0 0 
0 0 0 0.00448198 0.0266161 0.0615742 0.0962165 0.122625 0.144678 
0.158585 0.165452 0.165039 0.158448 0.144108 0.122244 0.0940405 0.0615308 0.0224189 
0 0 0 0 0 0 0 0 0 
0 0 0.00580162 0.0348545 0.0738404 0.105299 0.131542 0.153815 0.167281 
0.172763 0.172816 0.165763 0.150624 0.129092 0.100262 0.0652742 0.02275 0 
0 0 0 0 0 0 0 0 0 
0 0.00603229 0.0340136 0.0762689 0.110739 0.136051 0.156406 0.170227 0.176408 
0.175661 0.1685 0.152792 0.130819 0.102448 0.0665388 0.0244649 0 0 
0 0 0 0 0 0 0 0 0 
0 0.0305541 0.0719436 0.108837 0.134336 0.154826 0.168101 0.173984 0.172432 
0.165397 0.150857 0.129122 0.100617 0.0660972 0.0238945 0 0 0 
0 0 0 0 0 0 0 0 0 
0.0245089 0.0678024 0.103715 0.128261 0.148562 0.160395 0.166402 0.165665 0.157964 
0.143082 0.122148 0.0952752 0.0622206 0.0215015 0 0 0 0 
0 0 0 0 0 0 0 0 0.0208342 
0.0596327 0.0918222 0.116656 0.135931 0.148887 0.153887 0.152635 0.145737 0.132204 
0.111616 0.0858118 0.0560379 0.0193565 0 0 0 0 0 
0 0 0 0 0 0 0 0.0114457 0.0435023 
0.0760448 0.101365 0.119178 0.132053 0.136267 0.134642 0.128001 0.115092 0.0968596 
0.0737636 0.0479481 0.0161305 0 0 0 0 0 0 
0 0 0 0 0 0 0 0.0252098 0.0577497 
0.0818263 0.0983153 0.109615 0.114279 0.114053 0.106401 0.0942494 0.0780266 0.0584296 
0.0363904 0.0124655 0 0 0 0 0 0 0 
0 0 0 0 0 0 0.00910492 0.0336134 0.0585095 
0.0735856 0.0831766 0.0881976 0.0860099 0.0773141 0.0645327 0.0520452 0.0385389 0.0198969 
0.00526335 0 0 0 0 0 0 0 0 
0 0 0 0 0 0 0.0105867 0.030801 0.0469045 
0.0540112 0.0571357 0.0536761 0.042625 0.0295779 0.0184103 0.0132621 0.0059626 0 
0 0 0 0 0 0 0 0 0 
0 0 0 0 0 0 0.00720181 0.017264 0.0192099 
0.0205768 0.0183684 0.0115468 0 0 0 0 0 0 
0 0 0 0 0 0 0 0 0 
0 0 0 0 0 0 0 0.000114286 0 
0 0 0 0 0 0 0 0 0 
0 0 0 0 0 0 0 0 0 
0 0 0 0 0 0 0 0 0 
0 0 0 0 0 0 0 0 0 
0 0 0 0 0 0 0 0 0 
0 0 0 0 0 0 0 0 0 
0 0 0 0 0 0 0 0 0 
0 0 0 0 0 0 0 0 0 
0 0 0 0 0 0 0 0 0 
0 0 0 0 0 0 0 0 0 
0 0 0 0 0 0 0 0 0 
0 0 0 0 0 0 0 0 0 
0 0 0 0 0 0 0 0 0 
0 0 0 0 0 0 0 0 0 
0 0 0 0 0 0 0 0 0 
0 0 0 0 0 0 0 0 0 
0 0 0 0 0 0 0 0 0 
0 0 0 0 0 0 0 0 0 
0 0 0 0 0 0 0 0 0 
0 0 0 0 0 0 0 0 0 
0 0 0 0 0 0 0 0 0 
0 0 0 0 0 0 0 0 0 
0 0 0 0 0 0 0 0 0 
0 0 0 0 0 0 0 0 0 
0 0 0 0 0 0 0 0 0 
0 0 0 0 0 0 0 0 0 
0 0 0 0 0 0 0 0 0 
0 0 0 0 0 0 0 0 0 
0 0 0 0 0 0 0 0 0 
0 0 0 0 0 0 0 0 0 
0 0 0 0 0 0 0 0 0 
0 0 0 0 0 0 0 0 0 
0 0 0 0 0 0 0 0 0 
0 0 0 0 0 0 0 0 0 
0 0 0 0 0 0 0 0 0 
0 0 0 0 0 0 0 0 0 
0 0 0 0 0 0 0 0 0 
0 0 0 0 0 0 0 0 0 
0 0 0 0 0 0 0 0 0 
0 0 0 0 0 0 0 0 0 
0 0 0 0 0 0 0 0 0 
0 0 0 0 0 0 0 0 0 
0 0 0 0 0 0 0 0 0 
0 0 0 0 0 0 0 0 0 
0 0 0 0 0 0 0 0 0 
0 0 0 0 0 0 0 0 0 
0 0 0 0 0 0 0 0 0 
0 0 0 0 0 0 0 0 0 
0 0 0 0 0 0 0 0 0 
0 0 0 0 0 0 0 0 0 
0 0 0 0 0 0 0 0 0 
0 0 0 0 0 0 0 0 0 
0 0 0 0 0 0 0 0 0 
0 0 0 0 0 0 0 0 0 
0 0 0 0 0 0 0 0 0 
0 0 0 0 0 0 0 0 0 
0 0 0 0 0 0 0 0 0 
0 0 0 0 0 0 0 0 0 
0 0 0 0 0 0 0 0 0 
0 0 0 0 0 0 0 0 0 
0 0 0 0 0 0 0 0 0 
0 0 0 0 0 0 0 0 0 
0 0 0 0 0 0 0 0 0 
0 0 0 0 0 0 0 0 0 
0 0 0 0 0 0 0 0 0 
0 0 0 0 0 0 0 0 0 
0 0 0 0 0 0 0 0 0 
0 0 0 0 0 0 0 0 0 
0 0 0 0 0 0 0 0 0 
0 0 0 0 0 0 0 0 0 
0 0 0 0 0 0 0 0 0 
0 0 0 0 0 0 0 0 0 
0 0 0 0 0 0 0 0 0 
0 0 0 0 0 0 0 0 0 
0 0 0 0 0 0 0 0 0 
0 0 0 0 0 0 0 0 0 
0 0 0 0 0 0 0 0 0 
0 0 0 0 0 0 0 0 0 
0 0 0 0 0 0 0 0 0 
0 0 0 0 0 0 0 0 0 
0 0 0 0 0 0 0 0 0 
0 0 0 0 0 0 0 0 0 
0 0 0 0 0 0 0 0 0 
0 0 0 0 0 0 0 0 0 
0 0 0 0 0 0 0 0 0 
0 0 0 0 0 0 0 0 0 
0 0 0 0 0.00925714 0.0186345 0.0182961 0.0179432 0.00857219 
0 0 0 0 0 0 0 0 0 
0 0 0 0 0 0 0 0 0 
0 0.0113982 0.0219875 0.0379817 0.0517078 0.0538728 0.0499853 0.0355906 0.0201136 
0.00701346 0 0 0 0 0 0 0 0 
0 0 0 0 0 0 0 0.00369622 0.0174315 
0.0402021 0.0597435 0.0740586 0.0815149 0.0852766 0.0793372 0.0682967 0.0522301 0.0261734 
0.00558365 0 0 0 0 0 0 0 0 
0 0 0 0 0 0 0.0147038 0.0436197 0.0686305 
0.0881476 0.102835 0.109337 0.111834 0.105973 0.0939768 0.0751804 0.0493144 0.0169783 
0 0 0 0 0 0 0 0 0 
0 0 0 0 0.0084972 0.0335856 0.0664177 0.0913838 0.112662 
0.125922 0.133987 0.13464 0.128651 0.115355 0.0958848 0.0682127 0.0325963 0.00632094 